Title: ** sch_path: /home/designer/icdesign/sch/nmos/ej2.sch
Date: Mon Mar  7 15:27:05  2022
Plotname: DC transfer characteristic
Flags: real
No. Variables: 32
No. Points: 181
Variables:
	0	v(v-sweep)	voltage
	1	@m.xm1.msky130_fd_pr__nfet_01v8[gm]	admittance
	2	i(@m.xm1.msky130_fd_pr__nfet_01v8[id])	current
	3	v(@m.xm1.msky130_fd_pr__nfet_01v8[vds])	voltage
	4	v(@m.xm1.msky130_fd_pr__nfet_01v8[vdsat])	voltage
	5	v(@m.xm1.msky130_fd_pr__nfet_01v8[vgs])	voltage
	6	v(@m.xm1.msky130_fd_pr__nfet_01v8[vth])	voltage
	7	@m.xm2.msky130_fd_pr__nfet_01v8[gm]	admittance
	8	i(@m.xm2.msky130_fd_pr__nfet_01v8[id])	current
	9	v(@m.xm2.msky130_fd_pr__nfet_01v8[vds])	voltage
	10	v(@m.xm2.msky130_fd_pr__nfet_01v8[vdsat])	voltage
	11	v(@m.xm2.msky130_fd_pr__nfet_01v8[vgs])	voltage
	12	v(@m.xm2.msky130_fd_pr__nfet_01v8[vth])	voltage
	13	@m.xm3.msky130_fd_pr__nfet_01v8[gm]	admittance
	14	i(@m.xm3.msky130_fd_pr__nfet_01v8[id])	current
	15	v(@m.xm3.msky130_fd_pr__nfet_01v8[vds])	voltage
	16	v(@m.xm3.msky130_fd_pr__nfet_01v8[vdsat])	voltage
	17	v(@m.xm3.msky130_fd_pr__nfet_01v8[vgs])	voltage
	18	v(@m.xm3.msky130_fd_pr__nfet_01v8[vth])	voltage
	19	v(d)	voltage
	20	v(g)	voltage
	21	v(m.xm1.msky130_fd_pr__nfet_01v8#body)	voltage
	22	v(m.xm1.msky130_fd_pr__nfet_01v8#dbody)	voltage
	23	v(m.xm1.msky130_fd_pr__nfet_01v8#sbody)	voltage
	24	v(m.xm2.msky130_fd_pr__nfet_01v8#body)	voltage
	25	v(m.xm2.msky130_fd_pr__nfet_01v8#dbody)	voltage
	26	v(m.xm2.msky130_fd_pr__nfet_01v8#sbody)	voltage
	27	v(m.xm3.msky130_fd_pr__nfet_01v8#body)	voltage
	28	v(m.xm3.msky130_fd_pr__nfet_01v8#dbody)	voltage
	29	v(m.xm3.msky130_fd_pr__nfet_01v8#sbody)	voltage
	30	i(vds)	current
	31	i(vgs)	current
Values:
 0	0.000000000000000e+00
	9.077116466594888e-13
	3.358124324947562e-14
	1.799999999999278e+00
	4.012528272734411e-02
	-1.298474739427409e-14
	5.599071239110236e-01
	2.131162588759941e-12
	7.962964438245495e-14
	1.799999999999242e+00
	4.312409005264612e-02
	-3.079012916568189e-14
	7.682404238029334e-01
	2.131162588759941e-12
	7.962964438245495e-14
	1.799999999999242e+00
	4.312409005264612e-02
	-3.079012916568189e-14
	7.682404238029334e-01
	1.800000000000000e+00
	0.000000000000000e+00
	2.251254687328474e-11
	5.628040052874217e-11
	1.125627343635318e-11
	2.251340175835371e-11
	5.628082797127618e-11
	1.125670087888811e-11
	2.251340175835371e-11
	5.628082797127618e-11
	1.125670087888811e-11
	-5.594635865691089e-12
	0.000000000000000e+00

 1	1.000000000000000e-02
	1.189350400497761e-12
	4.400322740778226e-14
	1.799999999999271e+00
	4.012528790871655e-02
	9.999999999983506e-03
	5.599071239110236e-01
	2.785113841519751e-12
	1.040653671366686e-13
	1.799999999999225e+00
	4.312409013779179e-02
	9.999999999960969e-03
	7.682404238029352e-01
	2.785113841519751e-12
	1.040653671366686e-13
	1.799999999999225e+00
	4.312409013779179e-02
	9.999999999960969e-03
	7.682404238029352e-01
	1.800000000000000e+00
	1.000000000000000e-02
	2.251267751819611e-11
	5.628046585119776e-11
	1.125633875880895e-11
	2.251375990993456e-11
	5.628100704706639e-11
	1.125687995467874e-11
	2.251375990993456e-11
	5.628100704706639e-11
	1.125687995467874e-11
	-5.646150214033696e-12
	0.000000000000000e+00

 2	2.000000000000000e-02
	1.558333936115762e-12
	5.765869552569776e-14
	1.799999999999259e+00
	4.012529469763972e-02
	1.999999999997771e-02
	5.599071239110255e-01
	3.639713228341910e-12
	1.359991564875953e-13
	1.799999999999198e+00
	4.312409024906418e-02
	1.999999999994741e-02
	7.682404238029377e-01
	3.639713228341910e-12
	1.359991564875953e-13
	1.799999999999198e+00
	4.312409024906418e-02
	1.999999999994741e-02
	7.682404238029377e-01
	1.800000000000000e+00
	2.000000000000000e-02
	2.251289341466065e-11
	5.628057379942988e-11
	1.125644670704137e-11
	2.251434907368099e-11
	5.628130162893926e-11
	1.125717453655230e-11
	2.251434907368099e-11
	5.628130162893926e-11
	1.125717453655230e-11
	-5.732303520744608e-12
	0.000000000000000e+00

 3	3.000000000000000e-02
	2.041730459366697e-12
	7.555035979806105e-14
	1.799999999999245e+00
	4.012530359261830e-02
	2.999999999997079e-02
	5.599071239110273e-01
	4.756515635191483e-12
	1.777315618154878e-13
	1.799999999999166e+00
	4.312409039447958e-02
	2.999999999993128e-02
	7.682404238029411e-01
	4.756515635191483e-12
	1.777315618154878e-13
	1.799999999999166e+00
	4.312409039447958e-02
	2.999999999993128e-02
	7.682404238029411e-01
	1.800000000000000e+00
	3.000000000000000e-02
	2.251315092534884e-11
	5.628070255477379e-11
	1.125657546238564e-11
	2.251505040576044e-11
	5.628165229497859e-11
	1.125752520259243e-11
	2.251505040576044e-11
	5.628165229497859e-11
	1.125752520259243e-11
	-5.833555860590423e-12
	0.000000000000000e+00

 4	4.000000000000000e-02
	2.674986615484115e-12
	9.899162871569898e-14
	1.799999999999227e+00
	4.012531524662105e-02
	3.999999999996173e-02
	5.599071239110291e-01
	6.215955429651370e-12
	2.322688761489253e-13
	1.799999999999124e+00
	4.312409058451346e-02
	3.999999999991019e-02
	7.682404238029451e-01
	6.215955429651370e-12
	2.322688761489253e-13
	1.799999999999124e+00
	4.312409058451346e-02
	3.999999999991019e-02
	7.682404238029451e-01
	1.800000000000000e+00
	4.000000000000000e-02
	2.251348831021016e-11
	5.628087124720422e-11
	1.125674415481652e-11
	2.251596693016644e-11
	5.628211055718103e-11
	1.125798346479596e-11
	2.251596693016644e-11
	5.628211055718103e-11
	1.125798346479596e-11
	-5.966782623545441e-12
	0.000000000000000e+00

 5	5.000000000000000e-02
	3.504515882302315e-12
	1.297027547270380e-13
	1.799999999999203e+00
	4.012533051487951e-02
	4.999999999994985e-02
	5.599071239110327e-01
	8.123134844132853e-12
	3.035395850195330e-13
	1.799999999999069e+00
	4.312409083285429e-02
	4.999999999988263e-02
	7.682404238029507e-01
	8.123134844132853e-12
	3.035395850195330e-13
	1.799999999999069e+00
	4.312409083285429e-02
	4.999999999988263e-02
	7.682404238029507e-01
	1.800000000000000e+00
	5.000000000000000e-02
	2.251393032841440e-11
	5.628109225630604e-11
	1.125696516391894e-11
	2.251716466688609e-11
	5.628270942554016e-11
	1.125858233315648e-11
	2.251716466688609e-11
	5.628270942554016e-11
	1.125858233315648e-11
	-6.139977415386966e-12
	0.000000000000000e+00

 6	6.000000000000000e-02
	4.591084125427652e-12
	1.699366741470534e-13
	1.799999999999172e+00
	4.012535051745010e-02
	5.999999999993429e-02
	5.599071239110365e-01
	1.061538600375802e-11
	3.966771730440044e-13
	1.799999999998997e+00
	4.312409115738967e-02
	5.999999999984662e-02
	7.682404238029574e-01
	1.061538600375802e-11
	3.966771730440044e-13
	1.799999999998997e+00
	4.312409115738967e-02
	5.999999999984662e-02
	7.682404238029574e-01
	1.800000000000000e+00
	6.000000000000000e-02
	2.251450940590118e-11
	5.628138179504904e-11
	1.125725470266273e-11
	2.251872988646367e-11
	5.628349203532803e-11
	1.125936494294617e-11
	2.251872988646367e-11
	5.628349203532803e-11
	1.125936494294617e-11
	-6.364686555571097e-12
	0.000000000000000e+00

 7	7.000000000000001e-02
	6.014236588246685e-12
	2.226436782708127e-13
	1.799999999999132e+00
	4.012537672107687e-02
	6.999999999991392e-02
	5.599071239110420e-01
	1.387214955035144e-11
	5.183896188960468e-13
	1.799999999998903e+00
	4.312409158149343e-02
	6.999999999979956e-02
	7.682404238029672e-01
	1.387214955035144e-11
	5.183896188960468e-13
	1.799999999998903e+00
	4.312409158149343e-02
	6.999999999979956e-02
	7.682404238029672e-01
	1.800000000000000e+00
	7.000000000000001e-02
	2.251526800543248e-11
	5.628176109481417e-11
	1.125763400242889e-11
	2.252077531953106e-11
	5.628451475186052e-11
	1.126038765948105e-11
	2.252077531953106e-11
	5.628451475186052e-11
	1.126038765948105e-11
	-6.661338147750939e-12
	0.000000000000000e+00

 8	8.000000000000000e-02
	7.878084830343281e-12
	2.916868523399461e-13
	1.799999999999078e+00
	4.012541104629486e-02
	7.999999999988722e-02
	5.599071239110474e-01
	1.812787876669290e-11
	6.774421318137147e-13
	1.799999999998780e+00
	4.312409213570757e-02
	7.999999999973806e-02
	7.682404238029792e-01
	1.812787876669290e-11
	6.774421318137147e-13
	1.799999999998780e+00
	4.312409213570757e-02
	7.999999999973806e-02
	7.682404238029792e-01
	1.800000000000000e+00
	8.000000000000000e-02
	2.251626172731947e-11
	5.628225795575698e-11
	1.125813086337306e-11
	2.252344826941289e-11
	5.628585122679987e-11
	1.126172413442351e-11
	2.252344826941289e-11
	5.628585122679987e-11
	1.126172413442351e-11
	-7.046807581900794e-12
	0.000000000000000e+00

 9	9.000000000000000e-02
	1.031886452104759e-11
	3.821238493197151e-13
	1.799999999999008e+00
	4.012545600750720e-02
	8.999999999985224e-02
	5.599071239110566e-01
	2.368889465524935e-11
	8.852878066280558e-13
	1.799999999998619e+00
	4.312409285994019e-02
	8.999999999965769e-02
	7.682404238029948e-01
	2.368889465524935e-11
	8.852878066280558e-13
	1.799999999998619e+00
	4.312409285994019e-02
	8.999999999965769e-02
	7.682404238029948e-01
	1.800000000000000e+00
	9.000000000000000e-02
	2.251756336486417e-11
	5.628290877452844e-11
	1.125878168214629e-11
	2.252694121056889e-11
	5.628759769737581e-11
	1.126347060500354e-11
	2.252694121056889e-11
	5.628759769737581e-11
	1.126347060500354e-11
	-7.557510173228366e-12
	0.000000000000000e+00

 10	9.999999999999999e-02
	1.351482034764762e-11
	5.005753489863824e-13
	1.799999999998916e+00
	4.012551489615124e-02
	9.999999999980644e-02
	5.599071239110676e-01
	3.095539993728297e-11
	1.156891478926003e-12
	1.799999999998409e+00
	4.312409380633580e-02
	9.999999999955266e-02
	7.682404238030156e-01
	3.095539993728297e-11
	1.156891478926003e-12
	1.799999999998409e+00
	4.312409380633580e-02
	9.999999999955266e-02
	7.682404238030156e-01
	1.800000000000000e+00
	9.999999999999999e-02
	2.251926820739627e-11
	5.628376119579332e-11
	1.125963410341350e-11
	2.253150563385034e-11
	5.628987990901386e-11
	1.126575281664690e-11
	2.253150563385034e-11
	5.628987990901386e-11
	1.126575281664690e-11
	-8.216538560645859e-12
	0.000000000000000e+00

 11	1.100000000000000e-01
	1.769909575078297e-11
	6.557067523283672e-13
	1.799999999998797e+00
	4.012559202015391e-02
	1.099999999997465e-01
	5.599071239110822e-01
	4.045022840921983e-11
	1.511805902520835e-12
	1.799999999998134e+00
	4.312409504302548e-02
	1.099999999994154e-01
	7.682404238030428e-01
	4.045022840921983e-11
	1.511805902520835e-12
	1.799999999998134e+00
	4.312409504302548e-02
	1.099999999994154e-01
	7.682404238030428e-01
	1.800000000000000e+00
	1.100000000000000e-01
	2.252150097299994e-11
	5.628487757859364e-11
	1.126075048621685e-11
	2.253747013214426e-11
	5.629286215815730e-11
	1.126873506579731e-11
	2.253747013214426e-11
	5.629286215815730e-11
	1.126873506579731e-11
	-9.081624341433781e-12
	0.000000000000000e+00

 12	1.200000000000000e-01
	2.317655928072558e-11
	8.588575707248689e-13
	1.799999999998639e+00
	4.012569301678599e-02
	1.199999999996679e-01
	5.599071239111022e-01
	5.285638654029087e-11
	1.975577431943833e-12
	1.799999999997775e+00
	4.312409665902477e-02
	1.199999999992361e-01
	7.682404238030779e-01
	5.285638654029087e-11
	1.975577431943833e-12
	1.799999999997775e+00
	4.312409665902477e-02
	1.199999999992361e-01
	7.682404238030779e-01
	1.800000000000000e+00
	1.200000000000000e-01
	2.252442486684019e-11
	5.628633952551175e-11
	1.126221243313895e-11
	2.254526402349417e-11
	5.629675910382768e-11
	1.127263201147678e-11
	2.254526402349417e-11
	5.629675910382768e-11
	1.127263201147678e-11
	-1.021494000497114e-11
	0.000000000000000e+00

 13	1.300000000000000e-01
	3.034574636639231e-11
	1.124863545199359e-12
	1.799999999998434e+00
	4.012582526131715e-02
	1.299999999995650e-01
	5.599071239111280e-01
	6.906607044058863e-11
	2.581581954718984e-12
	1.799999999997307e+00
	4.312409877063100e-02
	1.299999999990018e-01
	7.682404238031240e-01
	6.906607044058863e-11
	2.581581954718984e-12
	1.799999999997307e+00
	4.312409877063100e-02
	1.299999999990018e-01
	7.682404238031240e-01
	1.800000000000000e+00
	1.300000000000000e-01
	2.252825341317333e-11
	5.628825379867570e-11
	1.126412670630812e-11
	2.255544820475424e-11
	5.630185119445172e-11
	1.127772410211271e-11
	2.255544820475424e-11
	5.630185119445172e-11
	1.127772410211271e-11
	-1.169375707377185e-11
	0.000000000000000e+00

 14	1.400000000000000e-01
	3.972745146335028e-11
	1.473129983890698e-12
	1.799999999998164e+00
	4.012599840049552e-02
	1.399999999994304e-01
	5.599071239111608e-01
	9.024465730461678e-11
	3.373422549717631e-12
	1.799999999996694e+00
	4.312410152977793e-02
	1.399999999986956e-01
	7.682404238031842e-01
	9.024465730461678e-11
	3.373422549717631e-12
	1.799999999996694e+00
	4.312410152977793e-02
	1.399999999986956e-01
	7.682404238031842e-01
	1.800000000000000e+00
	1.400000000000000e-01
	2.253326590267952e-11
	5.629076004342537e-11
	1.126663295106462e-11
	2.256875544528862e-11
	5.630850481471108e-11
	1.128437772238761e-11
	2.256875544528862e-11
	5.630850481471108e-11
	1.128437772238761e-11
	-1.362820967187872e-11
	0.000000000000000e+00

 15	1.500000000000000e-01
	5.200195679503878e-11
	1.929032329941227e-12
	1.799999999997812e+00
	4.012622504863046e-02
	1.499999999992541e-01
	5.599071239112048e-01
	1.179142331638736e-10
	4.408060419063393e-12
	1.799999999995894e+00
	4.312410513494516e-02
	1.499999999982956e-01
	7.682404238032633e-01
	1.179142331638736e-10
	4.408060419063393e-12
	1.799999999995894e+00
	4.312410513494516e-02
	1.499999999982956e-01
	7.682404238032633e-01
	1.800000000000000e+00
	1.500000000000000e-01
	2.253982754885553e-11
	5.629404086650888e-11
	1.126991377415707e-11
	2.258614300363862e-11
	5.631719859387586e-11
	1.129307150157268e-11
	2.258614300363862e-11
	5.631719859387586e-11
	1.129307150157268e-11
	-1.615330091908618e-11
	0.000000000000000e+00

 16	1.600000000000000e-01
	6.805746191365323e-11
	2.525742603385892e-12
	1.799999999997350e+00
	4.012652169523082e-02
	1.599999999990234e-01
	5.599071239112615e-01
	1.540626021924020e-10
	5.759902873106124e-12
	1.799999999994848e+00
	4.312410984540302e-02
	1.599999999977728e-01
	7.682404238033660e-01
	1.540626021924020e-10
	5.759902873106124e-12
	1.799999999994848e+00
	4.312410984540302e-02
	1.599999999977728e-01
	7.682404238033660e-01
	1.800000000000000e+00
	1.600000000000000e-01
	2.254841577273054e-11
	5.629833497844050e-11
	1.127420788610040e-11
	2.260886132785205e-11
	5.632855775596922e-11
	1.130443066369254e-11
	2.260886132785205e-11
	5.632855775596922e-11
	1.130443066369254e-11
	-1.945643646195094e-11
	0.000000000000000e+00

 17	1.700000000000000e-01
	8.905301804804331e-11
	3.306609551042090e-12
	1.799999999996746e+00
	4.012690988766436e-02
	1.699999999987215e-01
	5.599071239113366e-01
	2.012855226395079e-10
	7.526140205803979e-12
	1.799999999993482e+00
	4.312411599980814e-02
	1.699999999970899e-01
	7.682404238035002e-01
	2.012855226395079e-10
	7.526140205803979e-12
	1.799999999993482e+00
	4.312411599980814e-02
	1.699999999970899e-01
	7.682404238035002e-01
	1.800000000000000e+00
	1.700000000000000e-01
	2.255965445495038e-11
	5.630395431954273e-11
	1.127982722721794e-11
	2.263854374390071e-11
	5.634339896397609e-11
	1.131927187173406e-11
	2.263854374390071e-11
	5.634339896397609e-11
	1.131927187173406e-11
	-2.377120722485415e-11
	0.000000000000000e+00

 18	1.800000000000000e-01
	1.165002139965230e-10
	4.328257903145327e-12
	1.799999999995956e+00
	4.012741777084196e-02
	1.799999999983264e-01
	5.599071239114353e-01
	2.629722545282614e-10
	9.833711938293563e-12
	1.799999999991696e+00
	4.312412404047754e-02
	1.799999999961976e-01
	7.682404238036760e-01
	2.629722545282614e-10
	9.833711938293563e-12
	1.799999999991696e+00
	4.312412404047754e-02
	1.799999999961976e-01
	7.682404238036760e-01
	1.800000000000000e+00
	1.800000000000000e-01
	2.257435853434417e-11
	5.631130635922956e-11
	1.128717926692481e-11
	2.267732352622758e-11
	5.636278885511671e-11
	1.133866176291995e-11
	2.267732352622758e-11
	5.636278885511671e-11
	1.133866176291995e-11
	-2.941202836836965e-11
	0.000000000000000e+00

 19	1.900000000000000e-01
	1.523690569835222e-10
	5.664620350964886e-12
	1.799999999994922e+00
	4.012808208982772e-02
	1.899999999978097e-01
	5.599071239115633e-01
	3.435475444288191e-10
	1.284839829934255e-11
	1.799999999989364e+00
	4.312413454506744e-02
	1.899999999950320e-01
	7.682404238039057e-01
	3.435475444288191e-10
	1.284839829934255e-11
	1.799999999989364e+00
	4.312413454506744e-02
	1.899999999950320e-01
	7.682404238039057e-01
	1.800000000000000e+00
	1.900000000000000e-01
	2.259359202503438e-11
	5.632092310456151e-11
	1.129679601228296e-11
	2.272798668362113e-11
	5.638812043378369e-11
	1.136399334164605e-11
	2.272798668362113e-11
	5.638812043378369e-11
	1.136399334164605e-11
	-3.678390925188069e-11
	0.000000000000000e+00

 20	2.000000000000000e-01
	1.992250036617183e-10
	7.412177561582094e-12
	1.799999999993570e+00
	4.012895079166620e-02
	1.999999999971340e-01
	5.599071239117298e-01
	4.487871189456566e-10
	1.678668294069760e-11
	1.799999999986317e+00
	4.312414826790832e-02
	1.999999999935092e-01
	7.682404238042054e-01
	4.487871189456566e-10
	1.678668294069760e-11
	1.799999999986317e+00
	4.312414826790832e-02
	1.999999999935092e-01
	7.682404238042054e-01
	1.800000000000000e+00
	2.000000000000000e-01
	2.261874341050199e-11
	5.633349879727808e-11
	1.130937170503382e-11
	2.279417131653386e-11
	5.642121275020113e-11
	1.139708565814073e-11
	2.279417131653386e-11
	5.642121275020113e-11
	1.139708565814073e-11
	-4.641709239194824e-11
	0.000000000000000e+00

 21	2.100000000000000e-01
	2.604059959862809e-10
	9.696760238956509e-12
	1.799999999991802e+00
	4.013008640148662e-02
	2.099999999962506e-01
	5.599071239119494e-01
	5.862288760655440e-10
	2.193122808441649e-11
	1.799999999982338e+00
	4.312416619392738e-02
	2.099999999915200e-01
	7.682404238045977e-01
	5.862288760655440e-10
	2.193122808441649e-11
	1.799999999982338e+00
	4.312416619392738e-02
	2.099999999915200e-01
	7.682404238045977e-01
	1.800000000000000e+00
	2.100000000000000e-01
	2.265162350272676e-11
	5.634993884336796e-11
	1.132581175116850e-11
	2.288062768224816e-11
	5.646444093300745e-11
	1.144031384104794e-11
	2.288062768224816e-11
	5.646444093300745e-11
	1.144031384104794e-11
	-5.899813970700052e-11
	0.000000000000000e+00

 22	2.200000000000001e-01
	3.402507287292617e-10
	1.268236721565914e-11
	1.799999999989493e+00
	4.013157039696139e-02
	2.199999999950962e-01
	5.599071239122348e-01
	7.657085922237318e-10
	2.865105690998366e-11
	1.799999999977139e+00
	4.312418960897321e-02
	2.199999999889216e-01
	7.682404238051089e-01
	7.657085922237318e-10
	2.865105690998366e-11
	1.799999999977139e+00
	4.312418960897321e-02
	2.199999999889216e-01
	7.682404238051089e-01
	1.800000000000000e+00
	2.200000000000001e-01
	2.269459228853348e-11
	5.637142323624191e-11
	1.134729614410101e-11
	2.299355736612829e-11
	5.652090577488109e-11
	1.149677868305338e-11
	2.299355736612829e-11
	5.652090577488109e-11
	1.149677868305338e-11
	-7.543210500671194e-11
	0.000000000000000e+00

 23	2.300000000000001e-01
	4.443923164752407e-10
	1.658258001534059e-11
	1.799999999986476e+00
	4.013350886696149e-02
	2.299999999935881e-01
	5.599071239126100e-01
	1.000057537867756e-09
	3.742786720955654e-11
	1.799999999970350e+00
	4.312422019150410e-02
	2.299999999855279e-01
	7.682404238057776e-01
	1.000057537867756e-09
	3.742786720955654e-11
	1.799999999970350e+00
	4.312422019150410e-02
	2.299999999855279e-01
	7.682404238057776e-01
	1.800000000000000e+00
	2.300000000000001e-01
	2.275072309703137e-11
	5.639948864045243e-11
	1.137536154838802e-11
	2.314105548954178e-11
	5.659465483650110e-11
	1.157052774484552e-11
	2.314105548954178e-11
	5.659465483650110e-11
	1.157052774484552e-11
	-9.689937741086396e-11
	0.000000000000000e+00

 24	2.400000000000001e-01
	5.801351449680174e-10
	2.167531347949321e-11
	1.799999999982536e+00
	4.013603981746509e-02
	2.399999999916189e-01
	5.599071239130986e-01
	1.306010470116959e-09
	4.889032729454237e-11
	1.799999999961483e+00
	4.312426013208986e-02
	2.399999999810958e-01
	7.682404238066504e-01
	1.306010470116959e-09
	4.889032729454237e-11
	1.799999999961483e+00
	4.312426013208986e-02
	2.399999999810958e-01
	7.682404238066504e-01
	1.800000000000000e+00
	2.400000000000001e-01
	2.282401469872366e-11
	5.643613444124839e-11
	1.141200734928387e-11
	2.333368705960084e-11
	5.669097062141735e-11
	1.166684352998658e-11
	2.333368705960084e-11
	5.669097062141735e-11
	1.166684352998658e-11
	-1.249356174071181e-10
	0.000000000000000e+00

 25	2.500000000000001e-01
	7.569370988155833e-10
	2.832184122941318e-11
	1.799999999977395e+00
	4.013934258367846e-02
	2.499999999890490e-01
	5.599071239137352e-01
	1.705386752327503e-09
	6.385875821776520e-11
	1.799999999949903e+00
	4.312431228910349e-02
	2.499999999753080e-01
	7.682404238077901e-01
	1.705386752327503e-09
	6.385875821776520e-11
	1.799999999949903e+00
	4.312431228910349e-02
	2.499999999753080e-01
	7.682404238077901e-01
	1.800000000000000e+00
	2.500000000000001e-01
	2.291966479010910e-11
	5.648395948687564e-11
	1.145983239504146e-11
	2.358523785962012e-11
	5.681674602127904e-11
	1.179261893014185e-11
	2.358523785962012e-11
	5.681674602127904e-11
	1.179261893014185e-11
	-1.615418909750588e-10
	0.000000000000000e+00

 26	2.600000000000001e-01
	9.870246708637524e-10
	3.699128241822308e-11
	1.799999999970689e+00
	4.014364992510928e-02
	2.599999999856968e-01
	5.599071239145660e-01
	2.226625727659828e-09
	8.340332191875426e-11
	1.799999999934784e+00
	4.312438039147207e-02
	2.599999999677508e-01
	7.682404238092788e-01
	2.226625727659828e-09
	8.340332191875426e-11
	1.799999999934784e+00
	4.312438039147207e-02
	2.599999999677508e-01
	7.682404238092788e-01
	1.800000000000000e+00
	2.600000000000001e-01
	2.304442184314608e-11
	5.654633801330871e-11
	1.152221092164457e-11
	2.391369230247488e-11
	5.698097324251326e-11
	1.195684615175940e-11
	2.391369230247488e-11
	5.698097324251326e-11
	1.195684615175940e-11
	-2.093329953822831e-10
	0.000000000000000e+00

 27	2.700000000000001e-01
	1.286174788208536e-09
	4.829204203965105e-11
	1.799999999961947e+00
	4.014926352358673e-02
	2.699999999813272e-01
	5.599071239156491e-01
	2.906781066982311e-09
	1.089197592538683e-10
	1.799999999915044e+00
	4.312446930257768e-02
	2.699999999578844e-01
	7.682404238112217e-01
	2.906781066982311e-09
	1.089197592538683e-10
	1.799999999915044e+00
	4.312446930257768e-02
	2.699999999578844e-01
	7.682404238112217e-01
	1.800000000000000e+00
	2.700000000000001e-01
	2.320703663482490e-11
	5.662764540903679e-11
	1.160351831759429e-11
	2.434250620025646e-11
	5.719538019115186e-11
	1.217125310089845e-11
	2.434250620025646e-11
	5.719538019115186e-11
	1.217125310089845e-11
	-2.717062130841441e-10
	0.000000000000000e+00

 28	2.800000000000001e-01
	1.674704630297241e-09
	6.301207165347307e-11
	1.799999999950560e+00
	4.015657377577470e-02
	2.799999999756354e-01
	5.599071239170600e-01
	3.794109019537822e-09
	1.422279139376089e-10
	1.799999999889277e+00
	4.312458536354945e-02
	2.799999999450053e-01
	7.682404238137585e-01
	3.794109019537822e-09
	1.422279139376089e-10
	1.799999999889277e+00
	4.312458536354945e-02
	2.799999999450053e-01
	7.682404238137585e-01
	1.800000000000000e+00
	2.800000000000001e-01
	2.341884005447523e-11
	5.673354711871692e-11
	1.170942002756313e-11
	2.490226243176998e-11
	5.747525830657943e-11
	1.245113121697928e-11
	2.490226243176998e-11
	5.747525830657943e-11
	1.245113121697928e-11
	-3.530971071086242e-10
	0.000000000000000e+00

 29	2.900000000000001e-01
	2.178719334077126e-09
	8.217027223724655e-11
	1.799999999935741e+00
	4.016608497362830e-02
	2.899999999682276e-01
	5.599071239188970e-01
	4.951424051471589e-09
	1.856998127099383e-10
	1.799999999855648e+00
	4.312473683953637e-02
	2.899999999281961e-01
	7.682404238170690e-01
	4.951424051471589e-09
	1.856998127099383e-10
	1.799999999855648e+00
	4.312473683953637e-02
	2.899999999281961e-01
	7.682404238170690e-01
	1.800000000000000e+00
	2.900000000000001e-01
	2.369448015253649e-11
	5.687136716755881e-11
	1.184724007678076e-11
	2.563282326527284e-11
	5.784053872290123e-11
	1.281641163415367e-11
	2.563282326527284e-11
	5.784053872290123e-11
	1.281641163415367e-11
	-4.592690672211575e-10
	0.000000000000000e+00

 30	3.000000000000001e-01
	2.831677313873112e-09
	1.070819079712739e-10
	1.799999999916470e+00
	4.017844719850135e-02
	2.999999999585951e-01
	5.599071239212848e-01
	6.460444390757732e-09
	2.424260423293429e-10
	1.799999999811765e+00
	4.312493449941004e-02
	2.999999999062620e-01
	7.682404238213884e-01
	6.460444390757732e-09
	2.424260423293429e-10
	1.799999999811765e+00
	4.312493449941004e-02
	2.999999999062620e-01
	7.682404238213884e-01
	1.800000000000000e+00
	3.000000000000001e-01
	2.405285897171805e-11
	5.705055657690417e-11
	1.202642948661469e-11
	2.658612619089715e-11
	5.831719018515274e-11
	1.329306309751775e-11
	2.658612619089715e-11
	5.831719018515274e-11
	1.329306309751775e-11
	-5.977218719976918e-10
	0.000000000000000e+00

 31	3.100000000000001e-01
	3.676343971199454e-09
	1.394415512709453e-10
	1.799999999891438e+00
	4.019449651360458e-02
	3.099999999460827e-01
	5.599071239243870e-01
	8.427412088993873e-09
	3.164316875485478e-10
	1.799999999754514e+00
	4.312519236813924e-02
	3.099999998776465e-01
	7.682404238270242e-01
	8.427412088993873e-09
	3.164316875485478e-10
	1.799999999754514e+00
	4.312519236813924e-02
	3.099999998776465e-01
	7.682404238270242e-01
	1.800000000000000e+00
	3.100000000000001e-01
	2.451831859233888e-11
	5.728328638689576e-11
	1.225915929724096e-11
	2.782981250217074e-11
	5.893903334005812e-11
	1.391490625387458e-11
	2.782981250217074e-11
	5.893903334005812e-11
	1.391490625387458e-11
	-7.782130495570527e-10
	0.000000000000000e+00

 32	3.200000000000001e-01
	4.767216822245186e-09
	1.814278473897374e-10
	1.799999999858959e+00
	4.021530531632751e-02
	3.199999999298480e-01
	5.599071239284125e-01
	1.099035044674041e-08
	4.129563166350390e-10
	1.799999999679843e+00
	4.312552870229630e-02
	3.199999998403237e-01
	7.682404238343747e-01
	1.099035044674041e-08
	4.129563166350390e-10
	1.799999999679843e+00
	4.312552870229630e-02
	3.199999998403237e-01
	7.682404238343747e-01
	1.800000000000000e+00
	3.200000000000001e-01
	2.512213608707083e-11
	5.758519513384810e-11
	1.256106804501675e-11
	2.945193197858927e-11
	5.975009307731341e-11
	1.472596599302299e-11
	2.945193197858927e-11
	5.975009307731341e-11
	1.472596599302299e-11
	-1.013401806915226e-09
	0.000000000000000e+00

 33	3.300000000000001e-01
	6.173518563414591e-09
	2.358352835788785e-10
	1.799999999816872e+00
	4.024224498915084e-02
	3.299999999088105e-01
	5.599071239336283e-01
	1.432841964833683e-08
	5.388166013422134e-10
	1.799999999582479e+00
	4.312596725343527e-02
	3.299999997916577e-01
	7.682404238439590e-01
	1.432841964833683e-08
	5.388166013422134e-10
	1.799999999582479e+00
	4.312596725343527e-02
	3.299999997916577e-01
	7.682404238439590e-01
	1.800000000000000e+00
	3.300000000000001e-01
	2.590439871037689e-11
	5.797632644496510e-11
	1.295219935720084e-11
	3.156703585932651e-11
	6.080764501643811e-11
	1.578351793461617e-11
	3.156703585932651e-11
	6.080764501643811e-11
	1.578351793461617e-11
	-1.319731879334540e-09
	0.000000000000000e+00

 34	3.400000000000001e-01
	7.982869518169493e-09
	3.062391862651040e-10
	1.799999999762411e+00
	4.027706323639266e-02
	3.399999998815876e-01
	5.599071239403781e-01
	1.867395335274742e-08
	7.028753544304311e-10
	1.799999999455564e+00
	4.312653890216774e-02
	3.399999997282216e-01
	7.682404238564524e-01
	1.867395335274742e-08
	7.028753544304311e-10
	1.799999999455564e+00
	4.312653890216774e-02
	3.399999997282216e-01
	7.682404238564524e-01
	1.800000000000000e+00
	3.400000000000001e-01
	2.691634355351609e-11
	5.848229886584111e-11
	1.345817177945764e-11
	3.432405750466862e-11
	6.218615583748775e-11
	1.716202875888344e-11
	3.432405750466862e-11
	6.218615583748775e-11
	1.716202875888344e-11
	-1.718509778925181e-09
	0.000000000000000e+00

 35	3.500000000000001e-01
	1.030576778760491e-08
	3.972013665527455e-10
	1.799999999692046e+00
	4.032197866866199e-02
	3.499999998464156e-01
	5.599071239490976e-01
	2.432790935958027e-08
	9.166473214462242e-10
	1.799999999290192e+00
	4.312728376856541e-02
	3.499999996455632e-01
	7.682404238727315e-01
	2.432790935958027e-08
	9.166473214462242e-10
	1.799999999290192e+00
	4.312728376856541e-02
	3.499999996455632e-01
	7.682404238727315e-01
	1.800000000000000e+00
	3.500000000000001e-01
	2.822325988636782e-11
	5.913575703137081e-11
	1.411162994677137e-11
	3.791649007990801e-11
	6.398237212299469e-11
	1.895824504858304e-11
	3.791649007990801e-11
	6.398237212299469e-11
	1.895824504858304e-11
	-2.237356966361403e-09
	0.000000000000000e+00

 36	3.600000000000002e-01
	1.328102537916867e-08
	5.145252141025736e-10
	1.799999999601290e+00
	4.037979523184597e-02
	3.599999998010504e-01
	5.599071239603460e-01
	3.167965111056687e-08
	1.195080283140928e-09
	1.799999999074798e+00
	4.312825393310978e-02
	3.599999995379025e-01
	7.682404238939345e-01
	3.167965111056687e-08
	1.195080283140928e-09
	1.799999999074798e+00
	4.312825393310978e-02
	3.599999995379025e-01
	7.682404238939345e-01
	1.800000000000000e+00
	3.600000000000002e-01
	2.990806719004226e-11
	5.997816068205219e-11
	1.495403359975378e-11
	4.259550839920199e-11
	6.632188127988985e-11
	2.129775421093906e-11
	4.259550839920199e-11
	6.632188127988985e-11
	2.129775421093906e-11
	-2.911990648613028e-09
	0.000000000000000e+00

 37	3.700000000000002e-01
	1.708233361076507e-08
	6.655706419572742e-10
	1.799999999484448e+00
	4.045403888208052e-02
	3.699999997426462e-01
	5.599071239748266e-01
	4.123219832825644e-08
	1.557560266845375e-09
	1.799999998794386e+00
	4.312951693800680e-02
	3.699999993977435e-01
	7.682404239215378e-01
	4.123219832825644e-08
	1.557560266845375e-09
	1.799999998794386e+00
	4.312951693800680e-02
	3.699999993977435e-01
	7.682404239215378e-01
	1.800000000000000e+00
	3.700000000000002e-01
	3.207569707931717e-11
	6.106197562520161e-11
	1.603784854586562e-11
	4.868685363082670e-11
	6.936755389211974e-11
	2.434342683027818e-11
	4.868685363082670e-11
	6.936755389211974e-11
	2.434342683027818e-11
	-3.788570346330289e-09
	0.000000000000000e+00

 38	3.800000000000002e-01
	2.192616427203041e-08
	8.596411753950061e-10
	1.799999999334324e+00
	4.054911836423399e-02
	3.799999996676056e-01
	5.599071239934332e-01