Title: ** sch_path: /home/designer/icdesign/sch/nmos/ej2.sch
Date: Mon Mar  7 15:27:04  2022
Plotname: DC transfer characteristic
Flags: real
No. Variables: 32
No. Points: 1267
Variables:
	0	v(v-sweep)	voltage
	1	@m.xm1.msky130_fd_pr__nfet_01v8[gm]	admittance
	2	i(@m.xm1.msky130_fd_pr__nfet_01v8[id])	current
	3	v(@m.xm1.msky130_fd_pr__nfet_01v8[vds])	voltage
	4	v(@m.xm1.msky130_fd_pr__nfet_01v8[vdsat])	voltage
	5	v(@m.xm1.msky130_fd_pr__nfet_01v8[vgs])	voltage
	6	v(@m.xm1.msky130_fd_pr__nfet_01v8[vth])	voltage
	7	@m.xm2.msky130_fd_pr__nfet_01v8[gm]	admittance
	8	i(@m.xm2.msky130_fd_pr__nfet_01v8[id])	current
	9	v(@m.xm2.msky130_fd_pr__nfet_01v8[vds])	voltage
	10	v(@m.xm2.msky130_fd_pr__nfet_01v8[vdsat])	voltage
	11	v(@m.xm2.msky130_fd_pr__nfet_01v8[vgs])	voltage
	12	v(@m.xm2.msky130_fd_pr__nfet_01v8[vth])	voltage
	13	@m.xm3.msky130_fd_pr__nfet_01v8[gm]	admittance
	14	i(@m.xm3.msky130_fd_pr__nfet_01v8[id])	current
	15	v(@m.xm3.msky130_fd_pr__nfet_01v8[vds])	voltage
	16	v(@m.xm3.msky130_fd_pr__nfet_01v8[vdsat])	voltage
	17	v(@m.xm3.msky130_fd_pr__nfet_01v8[vgs])	voltage
	18	v(@m.xm3.msky130_fd_pr__nfet_01v8[vth])	voltage
	19	v(d)	voltage
	20	v(g)	voltage
	21	v(m.xm1.msky130_fd_pr__nfet_01v8#body)	voltage
	22	v(m.xm1.msky130_fd_pr__nfet_01v8#dbody)	voltage
	23	v(m.xm1.msky130_fd_pr__nfet_01v8#sbody)	voltage
	24	v(m.xm2.msky130_fd_pr__nfet_01v8#body)	voltage
	25	v(m.xm2.msky130_fd_pr__nfet_01v8#dbody)	voltage
	26	v(m.xm2.msky130_fd_pr__nfet_01v8#sbody)	voltage
	27	v(m.xm3.msky130_fd_pr__nfet_01v8#body)	voltage
	28	v(m.xm3.msky130_fd_pr__nfet_01v8#dbody)	voltage
	29	v(m.xm3.msky130_fd_pr__nfet_01v8#sbody)	voltage
	30	i(vds)	current
	31	i(vgs)	current
Values:
 0	0.000000000000000e+00
	0.000000000000000e+00
	0.000000000000000e+00
	-3.727663987914435e-30
	4.012528272747357e-02
	-1.839493899980651e-30
	5.599071239168167e-01
	-1.166704703199814e-37
	0.000000000000000e+00
	2.204211210298445e-38
	4.312410769267211e-02
	1.736479506154071e-38
	7.682671379380833e-01
	-1.166704703199814e-37
	0.000000000000000e+00
	2.204211210298445e-38
	4.312410769267211e-02
	1.736479506154071e-38
	7.682671379380833e-01
	0.000000000000000e+00
	0.000000000000000e+00
	1.573583662199310e-30
	2.035322511329653e-30
	2.685428475268278e-30
	4.101555394222825e-37
	5.643352701019382e-37
	6.661313481649094e-37
	4.101555394222825e-37
	5.643352701019382e-37
	6.661313481649094e-37
	-4.883198479084007e-30
	0.000000000000000e+00

 1	1.000000000000000e-02
	2.381619479203877e-13
	8.810921153205204e-15
	9.999999999988145e-03
	4.012528272747283e-02
	-3.937822290467352e-15
	5.599071239167849e-01
	4.681616075147075e-14
	1.667783439865971e-15
	9.999999999994572e-03
	4.312410759439951e-02
	-7.254041779257509e-16
	7.682669895262205e-01
	4.681616075147075e-14
	1.667783439865971e-15
	9.999999999994572e-03
	4.312410759439951e-02
	-7.254041779257509e-16
	7.682669895262205e-01
	1.000000000000000e-02
	0.000000000000000e+00
	1.286078201710250e-13
	3.215195504291153e-13
	6.430391008395981e-14
	1.286078201710251e-13
	3.215195504291979e-13
	6.430391008387719e-14
	1.286078201710251e-13
	3.215195504291979e-13
	6.430391008387719e-14
	-4.479402959667311e-14
	0.000000000000000e+00

 2	2.000000000000000e-02
	4.074485196787234e-13
	1.507376208940108e-14
	1.999999999998044e-02
	4.012528272747208e-02
	-5.828521341283746e-15
	5.599071239167528e-01
	8.266676680401312e-14
	2.945732577874277e-15
	1.999999999998982e-02
	4.312410749612947e-02
	-1.139016596828408e-15
	7.682668411143581e-01
	8.266676680401312e-14
	2.945732577874277e-15
	1.999999999998982e-02
	4.312410749612947e-02
	-1.139016596828408e-15
	7.682668411143581e-01
	2.000000000000000e-02
	0.000000000000000e+00
	2.554305790231282e-13
	6.385764475609556e-13
	1.277152895084290e-13
	2.554305790231275e-13
	6.385764475610744e-13
	1.277152895083080e-13
	2.554305790231275e-13
	6.385764475610744e-13
	1.277152895083080e-13
	-8.228140391253191e-14
	0.000000000000000e+00

 3	3.000000000000000e-02
	5.192440960020385e-13
	1.920969424155515e-14
	2.999999999997332e-02
	4.012528272747136e-02
	-7.427748440141089e-15
	5.599071239167216e-01
	1.091179757002048e-13
	3.889350995946241e-15
	2.999999999998517e-02
	4.312410739786179e-02
	-1.503882385174630e-15
	7.682666927024957e-01
	1.091179757002048e-13
	3.889350995946241e-15
	2.999999999998517e-02
	4.312410739786179e-02
	-1.503882385174630e-15
	7.682666927024957e-01
	3.000000000000000e-02
	0.000000000000000e+00
	3.821451414694075e-13
	9.553628536782423e-13
	1.910725707299801e-13
	3.821451414694061e-13
	9.553628536783913e-13
	1.910725707298270e-13
	3.821451414694061e-13
	9.553628536783913e-13
	1.910725707298270e-13
	-1.186550857568136e-13
	0.000000000000000e+00

 4	4.000000000000000e-02
	5.883285261905297e-13
	2.176550610797133e-14
	3.999999999996745e-02
	4.012528272747059e-02
	-8.415995695180130e-15
	5.599071239166886e-01
	1.282615240658896e-13
	4.572941789153504e-15
	3.999999999998073e-02
	4.312410729959665e-02
	-1.768204158573112e-15
	7.682665442906328e-01
	1.282615240658896e-13
	4.572941789153504e-15
	3.999999999998073e-02
	4.312410729959665e-02
	-1.768204158573112e-15
	7.682665442906328e-01
	4.000000000000000e-02
	0.000000000000000e+00
	5.084165050269062e-13
	1.271041262573588e-12
	2.542082525071310e-13
	5.084165050269043e-13
	1.271041262573754e-12
	2.542082525069590e-13
	5.084165050269043e-13
	1.271041262573754e-12
	2.542082525069590e-13
	-1.529054660664997e-13
	0.000000000000000e+00

 5	5.000000000000000e-02
	6.295057397548491e-13
	2.328887679875452e-14
	4.999999999996237e-02
	4.012528272746980e-02
	-9.005032362307723e-15
	5.599071239166556e-01
	1.423429057202242e-13
	5.076372835481734e-15
	4.999999999997645e-02
	4.312410720133404e-02
	-1.962864163178338e-15
	7.682663958787709e-01
	1.423429057202242e-13
	5.076372835481734e-15
	4.999999999997645e-02
	4.312410720133404e-02
	-1.962864163178338e-15
	7.682663958787709e-01
	5.000000000000000e-02
	0.000000000000000e+00
	6.343592326001025e-13
	1.585898081508183e-12
	3.171796162921245e-13
	6.343592326001007e-13
	1.585898081508360e-12
	3.171796162919425e-13
	6.343592326001007e-13
	1.585898081508360e-12
	3.171796162919425e-13
	-1.856848008685574e-13
	0.000000000000000e+00

 6	6.000000000000000e-02
	6.541940417389242e-13
	2.420223226933381e-14
	5.999999999995777e-02
	4.012528272746906e-02
	-9.358196477623237e-15
	5.599071239166237e-01
	1.532534191932650e-13
	5.466964230176375e-15
	5.999999999997225e-02
	4.312410710307390e-02
	-2.113892835818542e-15
	7.682662474669080e-01
	1.532534191932650e-13
	5.466964230176375e-15
	5.999999999997225e-02
	4.312410710307390e-02
	-2.113892835818542e-15
	7.682662474669080e-01
	6.000000000000000e-02
	0.000000000000000e+00
	7.600582736187691e-13
	1.900145684056457e-12
	3.800291367998504e-13
	7.600582736187667e-13
	1.900145684056638e-12
	3.800291367996628e-13
	7.600582736187667e-13
	1.900145684056638e-12
	3.800291367996628e-13
	-2.176037128265307e-13
	0.000000000000000e+00

 7	7.000000000000001e-02
	6.695988293787443e-13
	2.477213971570202e-14
	6.999999999995346e-02
	4.012528272746832e-02
	-9.578560690243804e-15
	5.599071239165917e-01
	1.622914345700065e-13
	5.790952489909493e-15
	6.999999999996814e-02
	4.312410700481630e-02
	-2.239168296273599e-15
	7.682660990550461e-01
	1.622914345700065e-13
	5.790952489909493e-15
	6.999999999996814e-02
	4.312410700481630e-02
	-2.239168296273599e-15
	7.682660990550461e-01
	7.000000000000001e-02
	0.000000000000000e+00
	8.855766188533620e-13
	2.213941547144548e-12
	4.427883094155382e-13
	8.855766188533595e-13
	2.213941547144731e-12
	4.427883094153482e-13
	8.855766188533595e-13
	2.213941547144731e-12
	4.427883094153482e-13
	-2.488009798184976e-13
	0.000000000000000e+00

 8	8.000000000000000e-02
	6.797793868813711e-13
	2.514877430162658e-14
	7.999999999994928e-02
	4.012528272746754e-02
	-9.724192730159520e-15
	5.599071239165587e-01
	1.702402361820694e-13
	6.076240103754764e-15
	7.999999999996402e-02
	4.312410690656122e-02
	-2.349479506985333e-15
	7.682659506431838e-01
	1.702402361820694e-13
	6.076240103754764e-15
	7.999999999996402e-02
	4.312410690656122e-02
	-2.349479506985333e-15
	7.682659506431838e-01
	8.000000000000000e-02
	0.000000000000000e+00
	1.010960976529858e-12
	2.527402441337398e-12
	5.054804882521775e-13
	1.010960976529856e-12
	2.527402441337581e-12
	5.054804882519865e-13
	1.010960976529856e-12
	2.527402441337581e-12
	5.054804882519865e-13
	-2.799982468104645e-13
	0.000000000000000e+00

 9	9.000000000000000e-02
	6.869354548558576e-13
	2.541351647219834e-14
	8.999999999994519e-02
	4.012528272746682e-02
	-9.826559702805472e-15
	5.599071239165276e-01
	1.775472445488280e-13
	6.338769054175551e-15
	8.999999999995996e-02
	4.312410680830874e-02
	-2.450990701172919e-15
	7.682658022313218e-01
	1.775472445488280e-13
	6.338769054175551e-15
	8.999999999995996e-02
	4.312410680830874e-02
	-2.450990701172919e-15
	7.682658022313218e-01
	9.000000000000000e-02
	0.000000000000000e+00
	1.136245981220249e-12
	2.840614953064982e-12
	5.681229905957640e-13
	1.136245981220246e-12
	2.840614953065166e-12
	5.681229905955731e-13
	1.136245981220246e-12
	2.840614953065166e-12
	5.681229905955731e-13
	-3.106126467145032e-13
	0.000000000000000e+00

 10	9.999999999999999e-02
	6.922680054489634e-13
	2.561079675737070e-14
	9.999999999994116e-02
	4.012528272746604e-02
	-9.902841413096988e-15
	5.599071239164948e-01
	1.844673107065962e-13
	6.587621759580403e-15
	9.999999999995586e-02
	4.312410671005872e-02
	-2.547213747287662e-15
	7.682656538194593e-01
	1.844673107065962e-13
	6.587621759580403e-15
	9.999999999995586e-02
	4.312410671005872e-02
	-2.547213747287662e-15
	7.682656538194593e-01
	9.999999999999999e-02
	0.000000000000000e+00
	1.261457314772898e-12
	3.153643286948214e-12
	6.307286573704804e-13
	1.261457314772895e-12
	3.153643286948396e-12
	6.307286573702896e-13
	1.261457314772895e-12
	3.153643286948396e-12
	6.307286573702896e-13
	-3.415046023746982e-13
	0.000000000000000e+00

 11	1.100000000000000e-01
	6.964527063794754e-13
	2.576561180200117e-14
	1.099999999999372e-01
	4.012528272746532e-02
	-9.962703230379258e-15
	5.599071239164636e-01
	1.911492889402034e-13
	6.828104205510164e-15
	1.099999999999518e-01
	4.312410661181124e-02
	-2.640200293072028e-15
	7.682655054075973e-01
	1.911492889402034e-13
	6.828104205510164e-15
	1.099999999999518e-01
	4.312410661181124e-02
	-2.640200293072028e-15
	7.682655054075973e-01
	1.100000000000000e-01
	0.000000000000000e+00
	1.386614020510633e-12
	3.466535051294160e-12
	6.933070102377399e-13
	1.386614020510630e-12
	3.466535051294341e-12
	6.933070102375501e-13
	1.386614020510630e-12
	3.466535051294341e-12
	6.933070102375501e-13
	-3.722022690055837e-13
	0.000000000000000e+00

 12	1.200000000000000e-01
	6.998845588762186e-13
	2.589257486229831e-14
	1.199999999999332e-01
	4.012528272746456e-02
	-1.001179561371873e-14
	5.599071239164308e-01
	1.976833933514425e-13
	7.063432891507932e-15
	1.199999999999477e-01
	4.312410651356635e-02
	-2.731194051682699e-15
	7.682653569957354e-01
	1.976833933514425e-13
	7.063432891507932e-15
	1.199999999999477e-01
	4.312410651356635e-02
	-2.731194051682699e-15
	7.682653569957354e-01
	1.200000000000000e-01
	0.000000000000000e+00
	1.511730219229558e-12
	3.779325548093079e-12
	7.558651095955946e-13
	1.511730219229555e-12
	3.779325548093259e-12
	7.558651095954057e-13
	1.511730219229555e-12
	3.779325548093259e-12
	7.558651095954057e-13
	-4.028999356364693e-13
	0.000000000000000e+00

 13	1.300000000000000e-01
	7.028038109087269e-13
	2.600057402506024e-14
	1.299999999999293e-01
	4.012528272746476e-02
	-1.005355529001155e-14
	5.599071239163979e-01
	2.041265288083964e-13
	7.295637328049097e-15
	1.299999999999437e-01
	4.312410641532403e-02
	-2.820979767170113e-15
	7.682652085838729e-01
	2.041265288083964e-13
	7.295637328049097e-15
	1.299999999999437e-01
	4.312410641532403e-02
	-2.820979767170113e-15
	7.682652085838729e-01
	1.300000000000000e-01
	0.000000000000000e+00
	1.636816381627691e-12
	4.092040954090021e-12
	8.184081907930535e-13
	1.636816381627688e-12
	4.092040954090200e-12
	8.184081907928661e-13
	1.636816381627688e-12
	4.092040954090200e-12
	8.184081907928661e-13
	-4.333200465111986e-13
	0.000000000000000e+00

 14	1.400000000000000e-01
	7.053621958412466e-13
	2.609522273771665e-14
	1.399999999999253e-01
	4.012528272746405e-02
	-1.009015279226355e-14
	5.599071239163667e-01
	2.105160117752749e-13
	7.526048943631217e-15
	1.399999999999396e-01
	4.312410631708427e-02
	-2.910072258553375e-15
	7.682650601720109e-01
	2.105160117752749e-13
	7.526048943631217e-15
	1.399999999999396e-01
	4.312410631708427e-02
	-2.910072258553375e-15
	7.682650601720109e-01
	1.400000000000000e-01
	0.000000000000000e+00
	1.761880271822310e-12
	4.404700679578174e-12
	8.809401358887554e-13
	1.761880271822307e-12
	4.404700679578352e-12
	8.809401358885692e-13
	1.761880271822307e-12
	4.404700679578352e-12
	8.809401358885692e-13
	-4.640732242933154e-13
	0.000000000000000e+00

 15	1.500000000000000e-01
	7.076589151469475e-13
	2.618019100567827e-14
	1.499999999999214e-01
	4.012528272746327e-02
	-1.012300718923357e-14
	5.599071239163339e-01
	2.168772109711523e-13
	7.755573364098404e-15
	1.499999999999356e-01
	4.312410621884710e-02
	-2.998821701158859e-15
	7.682649117601484e-01
	2.168772109711523e-13
	7.755573364098404e-15
	1.499999999999356e-01
	4.312410621884710e-02
	-2.998821701158859e-15
	7.682649117601484e-01
	1.500000000000000e-01
	0.000000000000000e+00
	1.886927646976596e-12
	4.717319117465496e-12
	9.434638234642908e-13
	1.886927646976593e-12
	4.717319117465672e-12
	9.434638234641062e-13
	1.886927646976593e-12
	4.717319117465672e-12
	9.434638234641062e-13
	-4.947708909242010e-13
	0.000000000000000e+00

 16	1.600000000000000e-01
	7.097608825651701e-13
	2.625795433446407e-14
	1.599999999999175e-01
	4.012528272746254e-02
	-1.015307567638894e-14
	5.599071239163026e-01
	2.232279458303224e-13
	7.984847164504524e-15
	1.599999999999316e-01
	4.312410612061253e-02
	-3.087474237340727e-15
	7.682647633482864e-01
	2.232279458303224e-13
	7.984847164504524e-15
	1.599999999999316e-01
	4.312410612061253e-02
	-3.087474237340727e-15
	7.682647633482864e-01
	1.600000000000000e-01
	0.000000000000000e+00
	2.011962776079111e-12
	5.029906940223392e-12
	1.005981388013941e-12
	2.011962776079108e-12
	5.029906940223567e-12
	1.005981388013758e-12
	2.011962776079108e-12
	5.029906940223567e-12
	1.005981388013758e-12
	-5.251354906476990e-13
	0.000000000000000e+00

 17	1.700000000000000e-01
	7.117145151364955e-13
	2.633022994452867e-14
	1.699999999999135e-01
	4.012528272746178e-02
	-1.018102224563878e-14
	5.599071239162696e-01
	2.295811064491021e-13
	8.214331242837747e-15
	1.699999999999276e-01
	4.312410602238056e-02
	-3.176208080987742e-15
	7.682646149364244e-01
	2.295811064491021e-13
	8.214331242837747e-15
	1.699999999999276e-01
	4.312410602238056e-02
	-3.176208080987742e-15
	7.682646149364244e-01
	1.700000000000000e-01
	0.000000000000000e+00
	2.136988824623486e-12
	5.342472061585937e-12
	1.068494412284522e-12
	2.136988824623483e-12
	5.342472061586112e-12
	1.068494412284340e-12
	2.136988824623483e-12
	5.342472061586112e-12
	1.068494412284340e-12
	-5.556111126736596e-13
	0.000000000000000e+00

 18	1.800000000000000e-01
	7.135528296472711e-13
	2.639823930761067e-14
	1.799999999999096e-01
	4.012528272746100e-02
	-1.020731919938868e-14
	5.599071239162368e-01
	2.359462664057252e-13
	8.444368302293552e-15
	1.799999999999235e-01
	4.312410592415115e-02
	-3.265155744002152e-15
	7.682644665245620e-01
	2.359462664057252e-13
	8.444368302293552e-15
	1.799999999999235e-01
	4.312410592415115e-02
	-3.265155744002152e-15
	7.682644665245620e-01
	1.800000000000000e-01
	0.000000000000000e+00
	2.262008139851879e-12
	5.655020349658525e-12
	1.131004069897111e-12
	2.262008139851875e-12
	5.655020349658696e-12
	1.131004069896931e-12
	2.262008139851875e-12
	5.655020349658696e-12
	1.131004069896931e-12
	-5.860312235483889e-13
	0.000000000000000e+00

 19	1.900000000000000e-01
	7.152998453409756e-13
	2.646287102706603e-14
	1.899999999999057e-01
	4.012528272746028e-02
	-1.023231013093627e-14
	5.599071239162057e-01
	2.423307066636631e-13
	8.675219344828408e-15
	1.899999999999195e-01
	4.312410582592439e-02
	-3.354418147140461e-15
	7.682643181126999e-01
	2.423307066636631e-13
	8.675219344828408e-15
	1.899999999999195e-01
	4.312410582592439e-02
	-3.354418147140461e-15
	7.682643181126999e-01
	1.900000000000000e-01
	0.000000000000000e+00
	2.387022462265570e-12
	5.967556155694362e-12
	1.193511231102349e-12
	2.387022462265568e-12
	5.967556155694532e-12
	1.193511231102171e-12
	2.387022462265568e-12
	5.967556155694532e-12
	1.193511231102171e-12
	-6.166733790280432e-13
	0.000000000000000e+00

 20	2.000000000000000e-01
	7.169733925778278e-13
	2.652478474559369e-14
	1.999999999999018e-01
	4.012528272745949e-02
	-1.025625010212516e-14
	5.599071239161726e-01
	2.487400843208342e-13
	8.907087506875734e-15
	1.999999999999154e-01
	4.312410572770033e-02
	-3.444073836490259e-15
	7.682641697008380e-01
	2.487400843208342e-13
	8.907087506875734e-15
	1.999999999999154e-01
	4.312410572770033e-02
	-3.444073836490259e-15
	7.682641697008380e-01
	2.000000000000000e-01
	0.000000000000000e+00
	2.512033082462009e-12
	6.280082706187066e-12
	1.256016541198962e-12
	2.512033082462007e-12
	6.280082706187236e-12
	1.256016541198785e-12
	2.512033082462007e-12
	6.280082706187236e-12
	1.256016541198785e-12
	-6.473710456589288e-13
	0.000000000000000e+00

 21	2.100000000000000e-01
	7.185869507518875e-13
	2.658447913983320e-14
	2.099999999998979e-01
	4.012528272745878e-02
	-1.027933193458929e-14
	5.599071239161417e-01
	2.551788808720566e-13
	9.140134036426467e-15
	2.099999999999114e-01
	4.312410562947881e-02
	-3.534185161274704e-15
	7.682640212889755e-01
	2.551788808720566e-13
	9.140134036426467e-15
	2.099999999999114e-01
	4.312410562947881e-02
	-3.534185161274704e-15
	7.682640212889755e-01
	2.100000000000000e-01
	0.000000000000000e+00
	2.637040957430872e-12
	6.592602393610830e-12
	1.318520478681786e-12
	2.637040957430869e-12
	6.592602393610996e-12
	1.318520478681611e-12
	2.637040957430869e-12
	6.592602393610996e-12
	1.318520478681611e-12
	-6.780132011385831e-13
	0.000000000000000e+00

 22	2.200000000000001e-01
	7.201508792096368e-13
	2.664233745875924e-14
	2.199999999998940e-01
	4.012528272745801e-02
	-1.030170381793222e-14
	5.599071239161086e-01
	2.616507098703487e-13
	9.374489258939683e-15
	2.199999999999074e-01
	4.312410553126002e-02
	-3.624802514004644e-15
	7.682638728771135e-01
	2.616507098703487e-13
	9.374489258939683e-15
	2.199999999999074e-01
	4.312410553126002e-02
	-3.624802514004644e-15
	7.682638728771135e-01
	2.200000000000001e-01
	0.000000000000000e+00
	2.762046796788658e-12
	6.905116992006903e-12
	1.381023398359072e-12
	2.762046796788656e-12
	6.905116992007070e-12
	1.381023398358899e-12
	2.762046796788656e-12
	6.905116992007070e-12
	1.381023398358899e-12
	-7.081002451059248e-13
	0.000000000000000e+00

 23	2.300000000000001e-01
	7.216732592783872e-13
	2.669865867496548e-14
	2.299999999998901e-01
	4.012528272745725e-02
	-1.032348135489015e-14
	5.599071239160757e-01
	2.681585326703766e-13
	9.610260266965079e-15
	2.299999999999033e-01
	4.312410543304385e-02
	-3.715967303799292e-15
	7.682637244652516e-01
	2.681585326703766e-13
	9.610260266965079e-15
	2.299999999999033e-01
	4.312410543304385e-02
	-3.715967303799292e-15
	7.682637244652516e-01
	2.300000000000001e-01
	0.000000000000000e+00
	2.887051126722422e-12
	7.217627816842919e-12
	1.443525563324347e-12
	2.887051126722420e-12
	7.217627816843083e-12
	1.443525563324176e-12
	2.887051126722420e-12
	7.217627816843083e-12
	1.443525563324176e-12
	-7.386313782831166e-13
	0.000000000000000e+00

 24	2.400000000000001e-01
	7.231604815167238e-13
	2.675367921022604e-14
	2.399999999998862e-01
	4.012528272745651e-02
	-1.034475596188243e-14
	5.599071239160446e-01
	2.747048126991130e-13
	9.847536418544491e-15
	2.399999999998993e-01
	4.312410533483039e-02
	-3.807714082434826e-15
	7.682635760533896e-01
	2.747048126991130e-13
	9.847536418544491e-15
	2.399999999998993e-01
	4.312410533483039e-02
	-3.807714082434826e-15
	7.682635760533896e-01
	2.400000000000001e-01
	0.000000000000000e+00
	3.012054337404622e-12
	7.530135843550027e-12
	1.506027168663840e-12
	3.012054337404619e-12
	7.530135843550186e-12
	1.506027168663670e-12
	3.012054337404619e-12
	7.530135843550186e-12
	1.506027168663670e-12
	-7.693845560652335e-13
	0.000000000000000e+00

 25	2.500000000000001e-01
	7.246176625986957e-13
	2.680758835836339e-14
	2.499999999998823e-01
	4.012528272745573e-02
	-1.036560083252039e-14
	5.599071239160117e-01
	2.812916277629992e-13
	1.008639334029320e-14
	2.499999999998952e-01
	4.312410523661952e-02
	-3.900072092202489e-15
	7.682634276415271e-01
	2.812916277629992e-13
	1.008639334029320e-14
	2.499999999998952e-01
	4.312410523661952e-02
	-3.900072092202489e-15
	7.682634276415271e-01
	2.500000000000001e-01
	0.000000000000000e+00
	3.137056718151668e-12
	7.842641795419245e-12
	1.568528359035755e-12
	3.137056718151663e-12
	7.842641795419405e-12
	1.568528359035587e-12
	3.137056718151663e-12
	7.842641795419405e-12
	1.568528359035587e-12
	-8.001377338473503e-13
	0.000000000000000e+00

 26	2.600000000000001e-01
	7.260489461036400e-13
	2.686053941309707e-14
	2.599999999998784e-01
	4.012528272745501e-02
	-1.038607524037560e-14
	5.599071239159806e-01
	2.879207531250541e-13
	1.032689588815131e-14
	2.599999999998912e-01
	4.312410513841140e-02
	-3.993066410732453e-15
	7.682632792296652e-01
	2.879207531250541e-13
	1.032689588815131e-14
	2.599999999998912e-01
	4.312410513841140e-02
	-3.993066410732453e-15
	7.682632792296652e-01
	2.600000000000001e-01
	0.000000000000000e+00
	3.262058483494284e-12
	8.155146208777396e-12
	1.631029241705457e-12
	3.262058483494281e-12
	8.155146208777556e-12
	1.631029241705291e-12
	3.262058483494281e-12
	8.155146208777556e-12
	1.631029241705291e-12
	-8.301137555122295e-13
	0.000000000000000e+00

 27	2.700000000000001e-01
	7.274577228135431e-13
	2.691265781802855e-14
	2.699999999998745e-01
	4.012528272745425e-02
	-1.040622769030730e-14
	5.599071239159475e-01
	2.945937238970009e-13
	1.056910037130907e-14
	2.699999999998871e-01
	4.312410504020596e-02
	-4.086718810911614e-15
	7.682631308178032e-01
	2.945937238970009e-13
	1.056910037130907e-14
	2.699999999998871e-01
	4.312410504020596e-02
	-4.086718810911614e-15
	7.682631308178032e-01
	2.700000000000001e-01
	0.000000000000000e+00
	3.387059792508956e-12
	8.467649481315683e-12
	1.693529896211185e-12
	3.387059792508952e-12
	8.467649481315836e-12
	1.693529896211021e-12
	3.387059792508952e-12
	8.467649481315836e-12
	1.693529896211021e-12
	-8.607559109918839e-13
	0.000000000000000e+00

 28	2.800000000000001e-01
	7.288467943001417e-13
	2.696404721866803e-14
	2.799999999998706e-01
	4.012528272745348e-02
	-1.042609825857942e-14
	5.599071239159148e-01
	3.013118825189324e-13
	1.081305624421180e-14
	2.799999999998831e-01
	4.312410494200315e-02
	-4.181048415125497e-15
	7.682629824059407e-01
	3.013118825189324e-13
	1.081305624421180e-14
	2.799999999998831e-01
	4.312410494200315e-02
	-4.181048415125497e-15
	7.682629824059407e-01
	2.800000000000001e-01
	0.000000000000000e+00
	3.512060763152328e-12
	8.780151907925721e-12
	1.756030381531265e-12
	3.512060763152326e-12
	8.780151907925876e-12
	1.756030381531103e-12
	3.512060763152326e-12
	8.780151907925876e-12
	1.756030381531103e-12
	-8.912870441690757e-13
	0.000000000000000e+00

 29	2.900000000000001e-01
	7.302184959575676e-13
	2.701479401403783e-14
	2.899999999998667e-01
	4.012528272745275e-02
	-1.044572035281393e-14
	5.599071239158836e-01
	3.080764153627921e-13
	1.105880741138517e-14
	2.899999999998790e-01
	4.312410484380311e-02
	-4.276072199790692e-15
	7.682628339940787e-01
	3.080764153627921e-13
	1.105880741138517e-14
	2.899999999998790e-01
	4.312410484380311e-02
	-4.276072199790692e-15
	7.682628339940787e-01
	2.900000000000001e-01
	0.000000000000000e+00
	3.637061482890322e-12
	9.092653707272312e-12
	1.818530741398654e-12
	3.637061482890318e-12
	9.092653707272463e-12
	1.818530741398494e-12
	3.637061482890318e-12
	9.092653707272463e-12
	1.818530741398494e-12
	-9.222622665561175e-13
	0.000000000000000e+00

 30	3.000000000000001e-01
	7.315747906383171e-13
	2.706497082081963e-14
	2.999999999998628e-01
	4.012528272745197e-02
	-1.046512205146108e-14
	5.599071239158506e-01
	3.148883812538191e-13
	1.130639324367702e-14
	2.999999999998750e-01
	4.312410474560577e-02
	-4.371805388301700e-15
	7.682626855822168e-01
	3.148883812538191e-13
	1.130639324367702e-14
	2.999999999998750e-01
	4.312410474560577e-02
	-4.371805388301700e-15
	7.682626855822168e-01
	3.000000000000001e-01
	0.000000000000000e+00
	3.762062016579708e-12
	9.405155041497386e-12
	1.881031008241740e-12
	3.762062016579707e-12
	9.405155041497536e-12
	1.881031008241583e-12
	3.762062016579707e-12
	9.405155041497536e-12
	1.881031008241583e-12
	-9.523493105234593e-13
	0.000000000000000e+00

 31	3.100000000000001e-01
	7.329173407005895e-13
	2.711463913876566e-14
	3.099999999998589e-01
	4.012528272745124e-02
	-1.048432713442507e-14
	5.599071239158195e-01
	3.217487339504925e-13
	1.155584937959974e-14
	3.099999999998710e-01
	4.312410464741118e-02
	-4.468261760883311e-15
	7.682625371703544e-01
	3.217487339504925e-13
	1.155584937959974e-14
	3.099999999998710e-01
	4.312410464741118e-02
	-4.468261760883311e-15
	7.682625371703544e-01
	3.100000000000001e-01
	0.000000000000000e+00
	3.887062412312370e-12
	9.717656030830644e-12
	1.943531206106464e-12
	3.887062412312367e-12
	9.717656030830796e-12
	1.943531206106308e-12
	3.887062412312367e-12
	9.717656030830796e-12
	1.943531206106308e-12
	-9.826583990957261e-13
	0.000000000000000e+00

 32	3.200000000000001e-01
	7.342475640160109e-13
	2.716385142271044e-14
	3.199999999998550e-01
	4.012528272745048e-02
	-1.050335588424191e-14
	5.599071239157866e-01
	3.286583400245592e-13
	1.180720836257582e-14
	3.199999999998669e-01
	4.312410454921932e-02
	-4.565453900992219e-15
	7.682623887584925e-01
	3.286583400245592e-13
	1.180720836257582e-14
	3.199999999998669e-01
	4.312410454921932e-02
	-4.565453900992219e-15
	7.682623887584925e-01
	3.200000000000001e-01
	0.000000000000000e+00
	4.012062705748871e-12
	1.003015676442350e-11
	2.006031352823107e-12
	4.012062705748868e-12
	1.003015676442365e-11
	2.006031352822953e-12
	4.012062705748868e-12
	1.003015676442365e-11
	2.006031352822953e-12
	-1.013855666087693e-12
	0.000000000000000e+00

 33	3.300000000000001e-01
	7.355666779271025e-13
	2.721265270884224e-14
	3.299999999998511e-01
	4.012528272744973e-02
	-1.052222571490440e-14
	5.599071239157537e-01
	3.356179932122464e-13
	1.206050015235827e-14
	3.299999999998628e-01
	4.312410445103021e-02
	-4.663393393066259e-15
	7.682622403466305e-01
	3.356179932122464e-13
	1.206050015235827e-14
	3.299999999998628e-01
	4.312410445103021e-02
	-4.663393393066259e-15
	7.682622403466305e-01
	3.300000000000001e-01
	0.000000000000000e+00
	4.137062923331844e-12
	1.034265730838254e-11
	2.068531461612987e-12
	4.137062923331841e-12
	1.034265730838269e-11
	2.068531461612835e-12
	4.137062923331841e-12
	1.034265730838269e-11
	2.068531461612835e-12
	-1.044164754659960e-12
	0.000000000000000e+00

 34	3.400000000000001e-01
	7.368757340537766e-13
	2.726108190233793e-14
	3.399999999998472e-01
	4.012528272744899e-02
	-1.054095166974759e-14
	5.599071239157227e-01
	3.426284260305139e-13
	1.231575253897436e-14
	3.399999999998587e-01
	4.312410435284388e-02
	-4.762090982582638e-15
	7.682620919347681e-01
	3.426284260305139e-13
	1.231575253897436e-14
	3.399999999998587e-01
	4.312410435284388e-02
	-4.762090982582638e-15
	7.682620919347681e-01
	3.400000000000001e-01
	0.000000000000000e+00
	4.262063084668742e-12
	1.065515771172640e-11
	2.131031542279829e-12
	4.262063084668739e-12
	1.065515771172654e-11
	2.131031542279679e-12
	4.262063084668739e-12
	1.065515771172654e-11
	2.131031542279679e-12
	-1.075139977047002e-12
	0.000000000000000e+00

 35	3.500000000000001e-01
	7.381756460891890e-13
	2.730917280572971e-14
	3.499999999998433e-01
	4.012528272744822e-02
	-1.055954681908394e-14
	5.599071239156896e-01
	3.496903192578055e-13
	1.257299148074223e-14
	3.499999999998546e-01
	4.312410425466029e-02
	-4.861556706757708e-15
	7.682619435229061e-01
	3.496903192578055e-13
	1.257299148074223e-14
	3.499999999998546e-01
	4.312410425466029e-02
	-4.861556706757708e-15
	7.682619435229061e-01
	3.500000000000001e-01
	0.000000000000000e+00
	4.387063204298664e-12
	1.096765801080281e-11
	2.193531602093183e-12
	4.387063204298663e-12
	1.096765801080295e-11
	2.193531602093035e-12
	4.387063204298663e-12
	1.096765801080295e-11
	2.193531602093035e-12
	-1.105671110224193e-12
	0.000000000000000e+00

 36	3.600000000000002e-01
	7.394672121674683e-13
	2.735695494636605e-14
	3.599999999998393e-01
	4.012528272744750e-02
	-1.057802258015484e-14
	5.599071239156586e-01
	3.568043097199804e-13
	1.283224138171386e-14
	3.599999999998507e-01
	4.312410415647943e-02
	-4.961800001824894e-15
	7.682617951110441e-01
	3.568043097199804e-13
	1.283224138171386e-14
	3.599999999998507e-01
	4.312410415647943e-02
	-4.961800001824894e-15
	7.682617951110441e-01
	3.600000000000002e-01
	0.000000000000000e+00
	4.512063293002489e-12
	1.128015823256398e-11
	2.256031646443488e-12
	4.512063293002487e-12
	1.128015823256412e-11
	2.256031646443342e-12
	4.512063293002487e-12
	1.128015823256412e-11
	2.256031646443342e-12
	-1.135980198796460e-12
	0.000000000000000e+00

 37	3.700000000000002e-01
	7.407511330014321e-13
	2.740445424746265e-14
	3.699999999998355e-01
	4.012528272744673e-02
	-1.059638897660372e-14
	5.599071239156257e-01
	3.639709967359171e-13
	1.309352532153811e-14
	3.699999999998466e-01
	4.312410405830138e-02
	-5.062829791915094e-15
	7.682616466991818e-01
	3.639709967359171e-13
	1.309352532153811e-14
	3.699999999998466e-01
	4.312410405830138e-02
	-5.062829791915094e-15
	7.682616466991818e-01
	3.700000000000002e-01
	0.000000000000000e+00
	4.637063358774331e-12
	1.159265839699519e-11
	2.318531679327802e-12
	4.637063358774331e-12
	1.159265839699533e-11
	2.318531679327659e-12
	4.637063358774331e-12
	1.159265839699533e-11
	2.318531679327659e-12
	-1.166511331973652e-12
	0.000000000000000e+00

 38	3.800000000000002e-01
	7.420280266888019e-13